<?xml version="1.0" encoding="UTF-8"?>

<!-- generated on 2025-12-13 19:44:54 by Eclipse SUMO GUI Version 1.23.1
<sumoConfiguration xmlns:xsi="http://www.w3.org/2001/XMLSchema-instance" xsi:noNamespaceSchemaLocation="http://sumo.dlr.de/xsd/sumoConfiguration.xsd">

    <input>
        <net-file value="Mobility Demand And SUMO/RL_Traffic_Control\RL.net.xml"/>
        <route-files value="Mobility Demand And SUMO/RL_Traffic_Control\RL.rou.xml"/>
        <additional-files value="Mobility Demand And SUMO/RL_Traffic_Control\RL.add.xml"/>
    </input>

    <time>
        <begin value="0"/>
        <end value="3600"/>
        <step-length value="0.1"/>
    </time>

    <traci_server>
        <remote-port value="59523"/>
    </traci_server>

    <gui_only>
        <start value="true"/>
    </gui_only>

</sumoConfiguration>
-->

<detector xmlns:xsi="http://www.w3.org/2001/XMLSchema-instance" xsi:noNamespaceSchemaLocation="http://sumo.dlr.de/xsd/det_e2_file.xsd">
   <interval begin="0.00" end="300.00" id="Node1_2_EB_0_QUEUE" sampledSeconds="611.00" nVehEntered="35" nVehLeft="32" nVehSeen="35" meanSpeed="6.06" meanTimeLoss="8.83" meanOccupancy="14.66" maxOccupancy="28.33" meanMaxJamLengthInVehicles="0.30" meanMaxJamLengthInMeters="2.92" maxJamLengthInVehicles="2" maxJamLengthInMeters="12.89" jamLengthInVehiclesSum="925" jamLengthInMetersSum="8929.96" meanHaltingDuration="2.66" maxHaltingDuration="11.00" haltingDurationSum="133.00" meanIntervalHaltingDuration="2.66" maxIntervalHaltingDuration="11.00" intervalHaltingDurationSum="133.00" startedHalts="50.00" meanVehicleNumber="2.04" maxVehicleNumber="4" />
   <interval begin="0.00" end="300.00" id="Node1_2_EB_1_QUEUE" sampledSeconds="46.56" nVehEntered="10" nVehLeft="10" nVehSeen="10" meanSpeed="7.62" meanTimeLoss="1.56" meanOccupancy="1.19" maxOccupancy="10.00" meanMaxJamLengthInVehicles="0.01" meanMaxJamLengthInMeters="0.10" maxJamLengthInVehicles="1" maxJamLengthInMeters="12.00" jamLengthInVehiclesSum="25" jamLengthInMetersSum="300.00" meanHaltingDuration="2.25" maxHaltingDuration="2.70" haltingDurationSum="4.50" meanIntervalHaltingDuration="2.25" maxIntervalHaltingDuration="2.70" intervalHaltingDurationSum="4.50" startedHalts="2.00" meanVehicleNumber="0.16" maxVehicleNumber="1" />
   <interval begin="0.00" end="300.00" id="Node1_2_EB_2_QUEUE" sampledSeconds="0.00" nVehEntered="0" nVehLeft="0" nVehSeen="0" meanSpeed="-1.00" meanTimeLoss="-1.00" meanOccupancy="0.00" maxOccupancy="0.00" meanMaxJamLengthInVehicles="0.00" meanMaxJamLengthInMeters="0.00" maxJamLengthInVehicles="0" maxJamLengthInMeters="0.00" jamLengthInVehiclesSum="0" jamLengthInMetersSum="0.00" meanHaltingDuration="0.00" maxHaltingDuration="0.00" haltingDurationSum="0.00" meanIntervalHaltingDuration="0.00" maxIntervalHaltingDuration="0.00" intervalHaltingDurationSum="0.00" startedHalts="0.00" meanVehicleNumber="0.00" maxVehicleNumber="0" />
   <interval begin="0.00" end="300.00" id="Node2_5_SB_0_QUEUE" sampledSeconds="322.52" nVehEntered="23" nVehLeft="22" nVehSeen="23" meanSpeed="3.76" meanTimeLoss="9.12" meanOccupancy="11.39" maxOccupancy="36.68" meanMaxJamLengthInVehicles="0.57" meanMaxJamLengthInMeters="4.46" maxJamLengthInVehicles="2" maxJamLengthInMeters="20.90" jamLengthInVehiclesSum="1703" jamLengthInMetersSum="13388.14" meanHaltingDuration="25.23" maxHaltingDuration="45.50" haltingDurationSum="176.60" meanIntervalHaltingDuration="25.23" maxIntervalHaltingDuration="45.50" intervalHaltingDurationSum="176.60" startedHalts="8.00" meanVehicleNumber="1.08" maxVehicleNumber="3" />
   <interval begin="0.00" end="300.00" id="Node2_5_SB_1_QUEUE" sampledSeconds="334.90" nVehEntered="37" nVehLeft="34" nVehSeen="37" meanSpeed="7.28" meanTimeLoss="4.11" meanOccupancy="7.58" maxOccupancy="27.50" meanMaxJamLengthInVehicles="0.33" meanMaxJamLengthInMeters="2.02" maxJamLengthInVehicles="2" maxJamLengthInMeters="20.55" jamLengthInVehiclesSum="981" jamLengthInMetersSum="6061.92" meanHaltingDuration="15.01" maxHaltingDuration="27.40" haltingDurationSum="105.10" meanIntervalHaltingDuration="15.01" maxIntervalHaltingDuration="27.40" intervalHaltingDurationSum="105.10" startedHalts="7.00" meanVehicleNumber="1.12" maxVehicleNumber="3" />
   <interval begin="0.00" end="300.00" id="Node2_5_SB_2_QUEUE" sampledSeconds="108.64" nVehEntered="21" nVehLeft="21" nVehSeen="21" meanSpeed="7.80" meanTimeLoss="2.21" meanOccupancy="2.09" maxOccupancy="12.50" meanMaxJamLengthInVehicles="0.05" meanMaxJamLengthInMeters="0.27" maxJamLengthInVehicles="1" maxJamLengthInMeters="5.00" jamLengthInVehiclesSum="164" jamLengthInMetersSum="819.47" meanHaltingDuration="6.43" maxHaltingDuration="10.00" haltingDurationSum="19.30" meanIntervalHaltingDuration="6.43" maxIntervalHaltingDuration="10.00" intervalHaltingDurationSum="19.30" startedHalts="3.00" meanVehicleNumber="0.37" maxVehicleNumber="3" />
   <interval begin="0.00" end="300.00" id="Node2_7_SB_0_QUEUE" sampledSeconds="404.93" nVehEntered="56" nVehLeft="55" nVehSeen="56" meanSpeed="5.20" meanTimeLoss="3.84" meanOccupancy="11.74" maxOccupancy="26.86" meanMaxJamLengthInVehicles="0.17" meanMaxJamLengthInMeters="2.53" maxJamLengthInVehicles="2" maxJamLengthInMeters="119.21" jamLengthInVehiclesSum="499" jamLengthInMetersSum="7578.73" meanHaltingDuration="1.96" maxHaltingDuration="10.20" haltingDurationSum="84.10" meanIntervalHaltingDuration="1.96" maxIntervalHaltingDuration="10.20" intervalHaltingDurationSum="84.10" startedHalts="65.00" meanVehicleNumber="1.35" maxVehicleNumber="4" />
   <interval begin="0.00" end="300.00" id="Node2_7_SB_1_QUEUE" sampledSeconds="333.66" nVehEntered="39" nVehLeft="37" nVehSeen="39" meanSpeed="7.56" meanTimeLoss="3.75" meanOccupancy="4.24" maxOccupancy="12.50" meanMaxJamLengthInVehicles="0.15" meanMaxJamLengthInMeters="0.54" maxJamLengthInVehicles="2" maxJamLengthInMeters="11.23" jamLengthInVehiclesSum="456" jamLengthInMetersSum="1607.47" meanHaltingDuration="2.01" maxHaltingDuration="10.60" haltingDurationSum="64.30" meanIntervalHaltingDuration="2.01" maxIntervalHaltingDuration="10.60" intervalHaltingDurationSum="64.30" startedHalts="33.00" meanVehicleNumber="1.11" maxVehicleNumber="3" />
   <interval begin="0.00" end="300.00" id="Node2_7_SB_2_QUEUE" sampledSeconds="223.77" nVehEntered="19" nVehLeft="18" nVehSeen="19" meanSpeed="8.24" meanTimeLoss="4.56" meanOccupancy="2.80" maxOccupancy="8.33" meanMaxJamLengthInVehicles="0.10" meanMaxJamLengthInMeters="0.33" maxJamLengthInVehicles="2" maxJamLengthInMeters="10.71" jamLengthInVehiclesSum="300" jamLengthInMetersSum="986.20" meanHaltingDuration="5.29" maxHaltingDuration="10.30" haltingDurationSum="37.00" meanIntervalHaltingDuration="5.29" maxIntervalHaltingDuration="10.30" intervalHaltingDurationSum="37.00" startedHalts="7.00" meanVehicleNumber="0.75" maxVehicleNumber="2" />
   <interval begin="300.00" end="600.00" id="Node1_2_EB_0_QUEUE" sampledSeconds="629.80" nVehEntered="33" nVehLeft="34" nVehSeen="36" meanSpeed="5.75" meanTimeLoss="9.16" meanOccupancy="15.19" maxOccupancy="28.33" meanMaxJamLengthInVehicles="0.34" meanMaxJamLengthInMeters="3.29" maxJamLengthInVehicles="3" maxJamLengthInMeters="117.97" jamLengthInVehiclesSum="1044" jamLengthInMetersSum="9998.06" meanHaltingDuration="2.88" maxHaltingDuration="11.90" haltingDurationSum="147.10" meanIntervalHaltingDuration="2.88" maxIntervalHaltingDuration="11.90" intervalHaltingDurationSum="147.10" startedHalts="51.00" meanVehicleNumber="2.10" maxVehicleNumber="4" />
   <interval begin="300.00" end="600.00" id="Node1_2_EB_1_QUEUE" sampledSeconds="36.05" nVehEntered="10" nVehLeft="10" nVehSeen="10" meanSpeed="9.91" meanTimeLoss="0.54" meanOccupancy="0.89" maxOccupancy="10.00" meanMaxJamLengthInVehicles="0.00" meanMaxJamLengthInMeters="0.00" maxJamLengthInVehicles="0" maxJamLengthInMeters="0.00" jamLengthInVehiclesSum="0" jamLengthInMetersSum="0.00" meanHaltingDuration="0.00" maxHaltingDuration="0.00" haltingDurationSum="0.00" meanIntervalHaltingDuration="0.00" maxIntervalHaltingDuration="0.00" intervalHaltingDurationSum="0.00" startedHalts="0.00" meanVehicleNumber="0.12" maxVehicleNumber="1" />
   <interval begin="300.00" end="600.00" id="Node1_2_EB_2_QUEUE" sampledSeconds="0.00" nVehEntered="0" nVehLeft="0" nVehSeen="0" meanSpeed="-1.00" meanTimeLoss="-1.00" meanOccupancy="0.00" maxOccupancy="0.00" meanMaxJamLengthInVehicles="0.00" meanMaxJamLengthInMeters="0.00" maxJamLengthInVehicles="0" maxJamLengthInMeters="0.00" jamLengthInVehiclesSum="0" jamLengthInMetersSum="0.00" meanHaltingDuration="0.00" maxHaltingDuration="0.00" haltingDurationSum="0.00" meanIntervalHaltingDuration="0.00" maxIntervalHaltingDuration="0.00" intervalHaltingDurationSum="0.00" startedHalts="0.00" meanVehicleNumber="0.00" maxVehicleNumber="0" />
   <interval begin="300.00" end="600.00" id="Node2_5_SB_0_QUEUE" sampledSeconds="354.83" nVehEntered="25" nVehLeft="26" nVehSeen="26" meanSpeed="3.79" meanTimeLoss="8.80" meanOccupancy="13.67" maxOccupancy="37.19" meanMaxJamLengthInVehicles="0.60" meanMaxJamLengthInMeters="5.55" maxJamLengthInVehicles="3" maxJamLengthInMeters="35.87" jamLengthInVehiclesSum="1794" jamLengthInMetersSum="16641.57" meanHaltingDuration="26.81" maxHaltingDuration="44.50" haltingDurationSum="214.50" meanIntervalHaltingDuration="23.30" maxIntervalHaltingDuration="43.20" intervalHaltingDurationSum="186.40" startedHalts="7.00" meanVehicleNumber="1.19" maxVehicleNumber="4" />
   <interval begin="300.00" end="600.00" id="Node2_5_SB_1_QUEUE" sampledSeconds="424.91" nVehEntered="41" nVehLeft="43" nVehSeen="44" meanSpeed="7.01" meanTimeLoss="4.48" meanOccupancy="10.35" maxOccupancy="33.75" meanMaxJamLengthInVehicles="0.45" meanMaxJamLengthInMeters="3.41" maxJamLengthInVehicles="2" maxJamLengthInMeters="20.83" jamLengthInVehiclesSum="1351" jamLengthInMetersSum="10227.99" meanHaltingDuration="18.02" maxHaltingDuration="28.40" haltingDurationSum="162.20" meanIntervalHaltingDuration="15.79" maxIntervalHaltingDuration="24.90" intervalHaltingDurationSum="142.10" startedHalts="7.00" meanVehicleNumber="1.42" maxVehicleNumber="4" />
   <interval begin="300.00" end="600.00" id="Node2_5_SB_2_QUEUE" sampledSeconds="171.03" nVehEntered="28" nVehLeft="27" nVehSeen="28" meanSpeed="5.63" meanTimeLoss="3.63" meanOccupancy="3.37" maxOccupancy="18.75" meanMaxJamLengthInVehicles="0.18" meanMaxJamLengthInMeters="0.91" maxJamLengthInVehicles="2" maxJamLengthInMeters="13.13" jamLengthInVehiclesSum="530" jamLengthInMetersSum="2717.09" meanHaltingDuration="9.83" maxHaltingDuration="19.70" haltingDurationSum="59.00" meanIntervalHaltingDuration="9.83" maxIntervalHaltingDuration="19.70" intervalHaltingDurationSum="59.00" startedHalts="6.00" meanVehicleNumber="0.58" maxVehicleNumber="4" />
   <interval begin="300.00" end="600.00" id="Node2_7_SB_0_QUEUE" sampledSeconds="392.48" nVehEntered="54" nVehLeft="53" nVehSeen="55" meanSpeed="5.33" meanTimeLoss="3.71" meanOccupancy="11.45" maxOccupancy="22.80" meanMaxJamLengthInVehicles="0.15" meanMaxJamLengthInMeters="2.40" maxJamLengthInVehicles="2" maxJamLengthInMeters="119.22" jamLengthInVehiclesSum="462" jamLengthInMetersSum="7204.79" meanHaltingDuration="1.97" maxHaltingDuration="11.00" haltingDurationSum="78.80" meanIntervalHaltingDuration="1.97" maxIntervalHaltingDuration="11.00" intervalHaltingDurationSum="78.80" startedHalts="62.00" meanVehicleNumber="1.31" maxVehicleNumber="4" />
   <interval begin="300.00" end="600.00" id="Node2_7_SB_1_QUEUE" sampledSeconds="328.20" nVehEntered="37" nVehLeft="37" nVehSeen="39" meanSpeed="7.58" meanTimeLoss="3.63" meanOccupancy="4.19" maxOccupancy="13.50" meanMaxJamLengthInVehicles="0.14" meanMaxJamLengthInMeters="0.56" maxJamLengthInVehicles="2" maxJamLengthInMeters="11.27" jamLengthInVehiclesSum="429" jamLengthInMetersSum="1673.44" meanHaltingDuration="1.92" maxHaltingDuration="9.70" haltingDurationSum="61.30" meanIntervalHaltingDuration="1.92" maxIntervalHaltingDuration="9.70" intervalHaltingDurationSum="61.30" startedHalts="32.00" meanVehicleNumber="1.10" maxVehicleNumber="4" />
   <interval begin="300.00" end="600.00" id="Node2_7_SB_2_QUEUE" sampledSeconds="214.43" nVehEntered="18" nVehLeft="19" nVehSeen="19" meanSpeed="8.92" meanTimeLoss="4.05" meanOccupancy="2.67" maxOccupancy="8.33" meanMaxJamLengthInVehicles="0.09" meanMaxJamLengthInMeters="0.30" maxJamLengthInVehicles="1" maxJamLengthInMeters="3.23" jamLengthInVehiclesSum="283" jamLengthInMetersSum="908.79" meanHaltingDuration="5.04" maxHaltingDuration="8.20" haltingDurationSum="35.30" meanIntervalHaltingDuration="5.04" maxIntervalHaltingDuration="8.20" intervalHaltingDurationSum="35.30" startedHalts="7.00" meanVehicleNumber="0.72" maxVehicleNumber="2" />
   <interval begin="600.00" end="900.00" id="Node1_2_EB_0_QUEUE" sampledSeconds="602.49" nVehEntered="34" nVehLeft="35" nVehSeen="36" meanSpeed="5.89" meanTimeLoss="8.49" meanOccupancy="14.35" maxOccupancy="28.33" meanMaxJamLengthInVehicles="0.31" meanMaxJamLengthInMeters="2.88" maxJamLengthInVehicles="3" maxJamLengthInMeters="117.99" jamLengthInVehiclesSum="945" jamLengthInMetersSum="8742.86" meanHaltingDuration="2.72" maxHaltingDuration="12.20" haltingDurationSum="136.00" meanIntervalHaltingDuration="2.72" maxIntervalHaltingDuration="12.20" intervalHaltingDurationSum="136.00" startedHalts="50.00" meanVehicleNumber="2.01" maxVehicleNumber="4" />
   <interval begin="600.00" end="900.00" id="Node1_2_EB_1_QUEUE" sampledSeconds="61.96" nVehEntered="13" nVehLeft="13" nVehSeen="13" meanSpeed="6.30" meanTimeLoss="2.11" meanOccupancy="1.70" maxOccupancy="10.00" meanMaxJamLengthInVehicles="0.02" meanMaxJamLengthInMeters="0.29" maxJamLengthInVehicles="1" maxJamLengthInMeters="12.00" jamLengthInVehiclesSum="72" jamLengthInMetersSum="864.00" meanHaltingDuration="1.95" maxHaltingDuration="2.60" haltingDurationSum="3.90" meanIntervalHaltingDuration="1.95" maxIntervalHaltingDuration="2.60" intervalHaltingDurationSum="3.90" startedHalts="4.00" meanVehicleNumber="0.21" maxVehicleNumber="1" />
   <interval begin="600.00" end="900.00" id="Node1_2_EB_2_QUEUE" sampledSeconds="0.00" nVehEntered="0" nVehLeft="0" nVehSeen="0" meanSpeed="-1.00" meanTimeLoss="-1.00" meanOccupancy="0.00" maxOccupancy="0.00" meanMaxJamLengthInVehicles="0.00" meanMaxJamLengthInMeters="0.00" maxJamLengthInVehicles="0" maxJamLengthInMeters="0.00" jamLengthInVehiclesSum="0" jamLengthInMetersSum="0.00" meanHaltingDuration="0.00" maxHaltingDuration="0.00" haltingDurationSum="0.00" meanIntervalHaltingDuration="0.00" maxIntervalHaltingDuration="0.00" intervalHaltingDurationSum="0.00" startedHalts="0.00" meanVehicleNumber="0.00" maxVehicleNumber="0" />
   <interval begin="600.00" end="900.00" id="Node2_5_SB_0_QUEUE" sampledSeconds="331.28" nVehEntered="25" nVehLeft="25" nVehSeen="25" meanSpeed="4.15" meanTimeLoss="8.12" meanOccupancy="11.82" maxOccupancy="51.68" meanMaxJamLengthInVehicles="0.52" meanMaxJamLengthInMeters="3.98" maxJamLengthInVehicles="3" maxJamLengthInMeters="35.88" jamLengthInVehiclesSum="1553" jamLengthInMetersSum="11952.07" meanHaltingDuration="23.18" maxHaltingDuration="42.40" haltingDurationSum="162.30" meanIntervalHaltingDuration="23.18" maxIntervalHaltingDuration="42.40" intervalHaltingDurationSum="162.30" startedHalts="7.00" meanVehicleNumber="1.11" maxVehicleNumber="4" />
   <interval begin="600.00" end="900.00" id="Node2_5_SB_1_QUEUE" sampledSeconds="428.65" nVehEntered="40" nVehLeft="41" nVehSeen="41" meanSpeed="6.59" meanTimeLoss="5.19" meanOccupancy="10.04" maxOccupancy="47.14" meanMaxJamLengthInVehicles="0.44" meanMaxJamLengthInMeters="3.10" maxJamLengthInVehicles="4" maxJamLengthInMeters="40.30" jamLengthInVehiclesSum="1334" jamLengthInMetersSum="9286.09" meanHaltingDuration="15.82" maxHaltingDuration="26.30" haltingDurationSum="142.40" meanIntervalHaltingDuration="15.82" maxIntervalHaltingDuration="26.30" intervalHaltingDurationSum="142.40" startedHalts="9.00" meanVehicleNumber="1.44" maxVehicleNumber="5" />
   <interval begin="600.00" end="900.00" id="Node2_5_SB_2_QUEUE" sampledSeconds="180.22" nVehEntered="22" nVehLeft="23" nVehSeen="23" meanSpeed="4.95" meanTimeLoss="4.95" meanOccupancy="3.58" maxOccupancy="25.00" meanMaxJamLengthInVehicles="0.24" meanMaxJamLengthInMeters="1.25" maxJamLengthInVehicles="3" maxJamLengthInMeters="20.81" jamLengthInVehiclesSum="713" jamLengthInMetersSum="3751.96" meanHaltingDuration="12.88" maxHaltingDuration="25.70" haltingDurationSum="77.30" meanIntervalHaltingDuration="12.88" maxIntervalHaltingDuration="25.70" intervalHaltingDurationSum="77.30" startedHalts="6.00" meanVehicleNumber="0.61" maxVehicleNumber="5" />
   <interval begin="600.00" end="900.00" id="Node2_7_SB_0_QUEUE" sampledSeconds="419.85" nVehEntered="53" nVehLeft="54" nVehSeen="55" meanSpeed="5.07" meanTimeLoss="4.14" meanOccupancy="12.15" maxOccupancy="26.86" meanMaxJamLengthInVehicles="0.22" meanMaxJamLengthInMeters="3.03" maxJamLengthInVehicles="2" maxJamLengthInMeters="119.21" jamLengthInVehiclesSum="651" jamLengthInMetersSum="9076.60" meanHaltingDuration="2.34" maxHaltingDuration="11.90" haltingDurationSum="98.30" meanIntervalHaltingDuration="2.34" maxIntervalHaltingDuration="11.90" intervalHaltingDurationSum="98.30" startedHalts="62.00" meanVehicleNumber="1.40" maxVehicleNumber="4" />
   <interval begin="600.00" end="900.00" id="Node2_7_SB_1_QUEUE" sampledSeconds="335.48" nVehEntered="37" nVehLeft="39" nVehSeen="39" meanSpeed="7.54" meanTimeLoss="3.71" meanOccupancy="4.25" maxOccupancy="15.19" meanMaxJamLengthInVehicles="0.18" meanMaxJamLengthInMeters="0.67" maxJamLengthInVehicles="2" maxJamLengthInMeters="11.26" jamLengthInVehiclesSum="530" jamLengthInMetersSum="2020.66" meanHaltingDuration="2.41" maxHaltingDuration="10.60" haltingDurationSum="69.80" meanIntervalHaltingDuration="2.41" maxIntervalHaltingDuration="10.60" intervalHaltingDurationSum="69.80" startedHalts="29.00" meanVehicleNumber="1.12" maxVehicleNumber="4" />
   <interval begin="600.00" end="900.00" id="Node2_7_SB_2_QUEUE" sampledSeconds="255.73" nVehEntered="18" nVehLeft="17" nVehSeen="18" meanSpeed="7.49" meanTimeLoss="6.38" meanOccupancy="3.10" maxOccupancy="8.33" meanMaxJamLengthInVehicles="0.17" meanMaxJamLengthInMeters="0.54" maxJamLengthInVehicles="1" maxJamLengthInMeters="3.23" jamLengthInVehiclesSum="503" jamLengthInMetersSum="1618.73" meanHaltingDuration="6.58" maxHaltingDuration="10.50" haltingDurationSum="59.20" meanIntervalHaltingDuration="6.58" maxIntervalHaltingDuration="10.50" intervalHaltingDurationSum="59.20" startedHalts="9.00" meanVehicleNumber="0.85" maxVehicleNumber="2" />
   <interval begin="900.00" end="1200.00" id="Node1_2_EB_0_QUEUE" sampledSeconds="622.51" nVehEntered="35" nVehLeft="34" nVehSeen="36" meanSpeed="6.03" meanTimeLoss="8.67" meanOccupancy="14.80" maxOccupancy="28.33" meanMaxJamLengthInVehicles="0.29" meanMaxJamLengthInMeters="2.94" maxJamLengthInVehicles="3" maxJamLengthInMeters="117.98" jamLengthInVehiclesSum="876" jamLengthInMetersSum="8911.53" meanHaltingDuration="2.54" maxHaltingDuration="12.00" haltingDurationSum="129.30" meanIntervalHaltingDuration="2.51" maxIntervalHaltingDuration="12.00" intervalHaltingDurationSum="128.10" startedHalts="50.00" meanVehicleNumber="2.08" maxVehicleNumber="4" />
   <interval begin="900.00" end="1200.00" id="Node1_2_EB_1_QUEUE" sampledSeconds="32.12" nVehEntered="10" nVehLeft="10" nVehSeen="10" meanSpeed="9.93" meanTimeLoss="0.47" meanOccupancy="0.80" maxOccupancy="10.00" meanMaxJamLengthInVehicles="0.00" meanMaxJamLengthInMeters="0.00" maxJamLengthInVehicles="0" maxJamLengthInMeters="0.00" jamLengthInVehiclesSum="0" jamLengthInMetersSum="0.00" meanHaltingDuration="0.00" maxHaltingDuration="0.00" haltingDurationSum="0.00" meanIntervalHaltingDuration="0.00" maxIntervalHaltingDuration="0.00" intervalHaltingDurationSum="0.00" startedHalts="0.00" meanVehicleNumber="0.11" maxVehicleNumber="1" />
   <interval begin="900.00" end="1200.00" id="Node1_2_EB_2_QUEUE" sampledSeconds="0.00" nVehEntered="0" nVehLeft="0" nVehSeen="0" meanSpeed="-1.00" meanTimeLoss="-1.00" meanOccupancy="0.00" maxOccupancy="0.00" meanMaxJamLengthInVehicles="0.00" meanMaxJamLengthInMeters="0.00" maxJamLengthInVehicles="0" maxJamLengthInMeters="0.00" jamLengthInVehiclesSum="0" jamLengthInMetersSum="0.00" meanHaltingDuration="0.00" maxHaltingDuration="0.00" haltingDurationSum="0.00" meanIntervalHaltingDuration="0.00" maxIntervalHaltingDuration="0.00" intervalHaltingDurationSum="0.00" startedHalts="0.00" meanVehicleNumber="0.00" maxVehicleNumber="0" />
   <interval begin="900.00" end="1200.00" id="Node2_5_SB_0_QUEUE" sampledSeconds="327.61" nVehEntered="24" nVehLeft="22" nVehSeen="24" meanSpeed="4.06" meanTimeLoss="8.43" meanOccupancy="11.63" maxOccupancy="36.71" meanMaxJamLengthInVehicles="0.52" meanMaxJamLengthInMeters="3.92" maxJamLengthInVehicles="3" maxJamLengthInMeters="35.88" jamLengthInVehiclesSum="1559" jamLengthInMetersSum="11748.12" meanHaltingDuration="20.49" maxHaltingDuration="39.60" haltingDurationSum="163.90" meanIntervalHaltingDuration="20.49" maxIntervalHaltingDuration="39.60" intervalHaltingDurationSum="163.90" startedHalts="9.00" meanVehicleNumber="1.10" maxVehicleNumber="4" />
   <interval begin="900.00" end="1200.00" id="Node2_5_SB_1_QUEUE" sampledSeconds="443.39" nVehEntered="39" nVehLeft="37" nVehSeen="39" meanSpeed="5.79" meanTimeLoss="6.44" meanOccupancy="10.86" maxOccupancy="33.75" meanMaxJamLengthInVehicles="0.61" meanMaxJamLengthInMeters="4.64" maxJamLengthInVehicles="3" maxJamLengthInMeters="28.15" jamLengthInVehiclesSum="1832" jamLengthInMetersSum="13907.89" meanHaltingDuration="21.36" maxHaltingDuration="37.60" haltingDurationSum="192.20" meanIntervalHaltingDuration="21.36" maxIntervalHaltingDuration="37.60" intervalHaltingDurationSum="192.20" startedHalts="9.00" meanVehicleNumber="1.48" maxVehicleNumber="4" />
   <interval begin="900.00" end="1200.00" id="Node2_5_SB_2_QUEUE" sampledSeconds="213.56" nVehEntered="28" nVehLeft="26" nVehSeen="28" meanSpeed="5.07" meanTimeLoss="4.74" meanOccupancy="4.26" maxOccupancy="18.75" meanMaxJamLengthInVehicles="0.29" meanMaxJamLengthInMeters="1.61" maxJamLengthInVehicles="2" maxJamLengthInMeters="13.44" jamLengthInVehiclesSum="874" jamLengthInMetersSum="4844.63" meanHaltingDuration="11.93" maxHaltingDuration="22.70" haltingDurationSum="95.40" meanIntervalHaltingDuration="11.93" maxIntervalHaltingDuration="22.70" intervalHaltingDurationSum="95.40" startedHalts="8.00" meanVehicleNumber="0.72" maxVehicleNumber="3" />
   <interval begin="900.00" end="1200.00" id="Node2_7_SB_0_QUEUE" sampledSeconds="424.37" nVehEntered="55" nVehLeft="55" nVehSeen="56" meanSpeed="4.89" meanTimeLoss="4.21" meanOccupancy="12.30" maxOccupancy="26.86" meanMaxJamLengthInVehicles="0.22" meanMaxJamLengthInMeters="3.41" maxJamLengthInVehicles="2" maxJamLengthInMeters="119.21" jamLengthInVehiclesSum="662" jamLengthInMetersSum="10216.91" meanHaltingDuration="2.31" maxHaltingDuration="11.70" haltingDurationSum="101.50" meanIntervalHaltingDuration="2.31" maxIntervalHaltingDuration="11.70" intervalHaltingDurationSum="101.50" startedHalts="65.00" meanVehicleNumber="1.42" maxVehicleNumber="4" />
   <interval begin="900.00" end="1200.00" id="Node2_7_SB_1_QUEUE" sampledSeconds="345.90" nVehEntered="40" nVehLeft="38" nVehSeen="40" meanSpeed="7.53" meanTimeLoss="3.81" meanOccupancy="4.34" maxOccupancy="15.19" meanMaxJamLengthInVehicles="0.18" meanMaxJamLengthInMeters="0.59" maxJamLengthInVehicles="1" maxJamLengthInMeters="3.23" jamLengthInVehiclesSum="553" jamLengthInMetersSum="1778.30" meanHaltingDuration="2.38" maxHaltingDuration="10.50" haltingDurationSum="73.70" meanIntervalHaltingDuration="2.38" maxIntervalHaltingDuration="10.50" intervalHaltingDurationSum="73.70" startedHalts="31.00" meanVehicleNumber="1.16" maxVehicleNumber="4" />
   <interval begin="900.00" end="1200.00" id="Node2_7_SB_2_QUEUE" sampledSeconds="232.51" nVehEntered="18" nVehLeft="19" nVehSeen="19" meanSpeed="7.59" meanTimeLoss="5.49" meanOccupancy="2.86" maxOccupancy="8.33" meanMaxJamLengthInVehicles="0.13" meanMaxJamLengthInMeters="0.45" maxJamLengthInVehicles="2" maxJamLengthInMeters="10.73" jamLengthInVehiclesSum="382" jamLengthInMetersSum="1343.12" meanHaltingDuration="4.11" maxHaltingDuration="10.80" haltingDurationSum="49.30" meanIntervalHaltingDuration="4.11" maxIntervalHaltingDuration="10.80" intervalHaltingDurationSum="49.30" startedHalts="12.00" meanVehicleNumber="0.78" maxVehicleNumber="2" />
   <interval begin="1200.00" end="1500.00" id="Node1_2_EB_0_QUEUE" sampledSeconds="611.22" nVehEntered="34" nVehLeft="35" nVehSeen="36" meanSpeed="5.85" meanTimeLoss="8.69" meanOccupancy="14.55" maxOccupancy="28.33" meanMaxJamLengthInVehicles="0.33" meanMaxJamLengthInMeters="2.87" maxJamLengthInVehicles="2" maxJamLengthInMeters="12.52" jamLengthInVehiclesSum="996" jamLengthInMetersSum="8749.46" meanHaltingDuration="2.83" maxHaltingDuration="11.40" haltingDurationSum="141.30" meanIntervalHaltingDuration="2.83" maxIntervalHaltingDuration="11.40" intervalHaltingDurationSum="141.30" startedHalts="50.00" meanVehicleNumber="2.04" maxVehicleNumber="4" />
   <interval begin="1200.00" end="1500.00" id="Node1_2_EB_1_QUEUE" sampledSeconds="61.08" nVehEntered="12" nVehLeft="12" nVehSeen="12" meanSpeed="6.67" meanTimeLoss="2.15" meanOccupancy="1.63" maxOccupancy="10.00" meanMaxJamLengthInVehicles="0.02" meanMaxJamLengthInMeters="0.27" maxJamLengthInVehicles="1" maxJamLengthInMeters="12.00" jamLengthInVehiclesSum="67" jamLengthInMetersSum="804.00" meanHaltingDuration="3.00" maxHaltingDuration="3.40" haltingDurationSum="6.00" meanIntervalHaltingDuration="3.00" maxIntervalHaltingDuration="3.40" intervalHaltingDurationSum="6.00" startedHalts="3.00" meanVehicleNumber="0.20" maxVehicleNumber="1" />
   <interval begin="1200.00" end="1500.00" id="Node1_2_EB_2_QUEUE" sampledSeconds="0.00" nVehEntered="0" nVehLeft="0" nVehSeen="0" meanSpeed="-1.00" meanTimeLoss="-1.00" meanOccupancy="0.00" maxOccupancy="0.00" meanMaxJamLengthInVehicles="0.00" meanMaxJamLengthInMeters="0.00" maxJamLengthInVehicles="0" maxJamLengthInMeters="0.00" jamLengthInVehiclesSum="0" jamLengthInMetersSum="0.00" meanHaltingDuration="0.00" maxHaltingDuration="0.00" haltingDurationSum="0.00" meanIntervalHaltingDuration="0.00" maxIntervalHaltingDuration="0.00" intervalHaltingDurationSum="0.00" startedHalts="0.00" meanVehicleNumber="0.00" maxVehicleNumber="0" />
   <interval begin="1200.00" end="1500.00" id="Node2_5_SB_0_QUEUE" sampledSeconds="347.70" nVehEntered="27" nVehLeft="28" nVehSeen="29" meanSpeed="3.98" meanTimeLoss="7.53" meanOccupancy="13.11" maxOccupancy="37.38" meanMaxJamLengthInVehicles="0.57" meanMaxJamLengthInMeters="5.08" maxJamLengthInVehicles="3" maxJamLengthInMeters="35.87" jamLengthInVehiclesSum="1703" jamLengthInMetersSum="15241.61" meanHaltingDuration="25.05" maxHaltingDuration="46.30" haltingDurationSum="200.40" meanIntervalHaltingDuration="22.04" maxIntervalHaltingDuration="46.30" intervalHaltingDurationSum="176.30" startedHalts="6.00" meanVehicleNumber="1.17" maxVehicleNumber="4" />
   <interval begin="1200.00" end="1500.00" id="Node2_5_SB_1_QUEUE" sampledSeconds="417.64" nVehEntered="41" nVehLeft="42" nVehSeen="43" meanSpeed="6.44" meanTimeLoss="4.97" meanOccupancy="10.63" maxOccupancy="36.08" meanMaxJamLengthInVehicles="0.46" meanMaxJamLengthInMeters="3.76" maxJamLengthInVehicles="3" maxJamLengthInMeters="27.38" jamLengthInVehiclesSum="1373" jamLengthInMetersSum="11269.15" meanHaltingDuration="18.32" maxHaltingDuration="39.10" haltingDurationSum="183.20" meanIntervalHaltingDuration="14.01" maxIntervalHaltingDuration="30.40" intervalHaltingDurationSum="140.10" startedHalts="9.00" meanVehicleNumber="1.40" maxVehicleNumber="5" />
   <interval begin="1200.00" end="1500.00" id="Node2_5_SB_2_QUEUE" sampledSeconds="218.25" nVehEntered="29" nVehLeft="31" nVehSeen="31" meanSpeed="4.47" meanTimeLoss="4.72" meanOccupancy="4.33" maxOccupancy="18.91" meanMaxJamLengthInVehicles="0.34" meanMaxJamLengthInMeters="1.96" maxJamLengthInVehicles="3" maxJamLengthInMeters="18.98" jamLengthInVehiclesSum="1017" jamLengthInMetersSum="5874.17" meanHaltingDuration="14.19" maxHaltingDuration="30.90" haltingDurationSum="127.70" meanIntervalHaltingDuration="12.08" maxIntervalHaltingDuration="19.60" intervalHaltingDurationSum="108.70" startedHalts="7.00" meanVehicleNumber="0.73" maxVehicleNumber="4" />
   <interval begin="1200.00" end="1500.00" id="Node2_7_SB_0_QUEUE" sampledSeconds="407.74" nVehEntered="55" nVehLeft="54" nVehSeen="56" meanSpeed="5.11" meanTimeLoss="3.93" meanOccupancy="11.87" maxOccupancy="26.34" meanMaxJamLengthInVehicles="0.19" meanMaxJamLengthInMeters="2.92" maxJamLengthInVehicles="2" maxJamLengthInMeters="119.22" jamLengthInVehiclesSum="558" jamLengthInMetersSum="8765.03" meanHaltingDuration="2.07" maxHaltingDuration="10.00" haltingDurationSum="91.20" meanIntervalHaltingDuration="2.07" maxIntervalHaltingDuration="10.00" intervalHaltingDurationSum="91.20" startedHalts="65.00" meanVehicleNumber="1.36" maxVehicleNumber="4" />
   <interval begin="1200.00" end="1500.00" id="Node2_7_SB_1_QUEUE" sampledSeconds="343.79" nVehEntered="38" nVehLeft="38" nVehSeen="40" meanSpeed="7.37" meanTimeLoss="3.85" meanOccupancy="4.34" maxOccupancy="15.19" meanMaxJamLengthInVehicles="0.18" meanMaxJamLengthInMeters="0.69" maxJamLengthInVehicles="2" maxJamLengthInMeters="11.25" jamLengthInVehiclesSum="550" jamLengthInMetersSum="2076.11" meanHaltingDuration="2.33" maxHaltingDuration="10.30" haltingDurationSum="74.50" meanIntervalHaltingDuration="2.33" maxIntervalHaltingDuration="10.30" intervalHaltingDurationSum="74.50" startedHalts="32.00" meanVehicleNumber="1.15" maxVehicleNumber="4" />